   8   8   0   0
  0.2000000E+02  0.5428835E-09  0.5428835E-09  0.5428835E-09  0.5000000E-15
  1.000000000000000E-004
  CAR 
 unknown system                          
     12.54282461     -8.10541055 1000      5.78538479      1.00000000
     -8.105  0.0000E+00  0.0000E+00
     -8.085  0.0000E+00  0.0000E+00
     -8.064  0.0000E+00  0.0000E+00
     -8.043  0.0000E+00  0.0000E+00
     -8.023  0.0000E+00  0.0000E+00
     -8.002  0.0000E+00  0.0000E+00
     -7.981  0.0000E+00  0.0000E+00
     -7.961  0.0000E+00  0.0000E+00
     -7.940  0.0000E+00  0.0000E+00
     -7.919  0.0000E+00  0.0000E+00
     -7.899  0.0000E+00  0.0000E+00
     -7.878  0.0000E+00  0.0000E+00
     -7.857  0.0000E+00  0.0000E+00
     -7.837  0.0000E+00  0.0000E+00
     -7.816  0.0000E+00  0.0000E+00
     -7.795  0.0000E+00  0.0000E+00
     -7.775  0.0000E+00  0.0000E+00
     -7.754  0.0000E+00  0.0000E+00
     -7.733  0.0000E+00  0.0000E+00
     -7.713  0.0000E+00  0.0000E+00
     -7.692  0.0000E+00  0.0000E+00
     -7.671  0.0000E+00  0.0000E+00
     -7.651  0.0000E+00  0.0000E+00
     -7.630  0.0000E+00  0.0000E+00
     -7.609  0.0000E+00  0.0000E+00
     -7.589  0.0000E+00  0.0000E+00
     -7.568  0.0000E+00  0.0000E+00
     -7.547  0.0000E+00  0.0000E+00
     -7.527  0.0000E+00  0.0000E+00
     -7.506  0.0000E+00  0.0000E+00
     -7.485  0.0000E+00  0.0000E+00
     -7.465  0.0000E+00  0.0000E+00
     -7.444  0.0000E+00  0.0000E+00
     -7.423  0.0000E+00  0.0000E+00
     -7.403  0.0000E+00  0.0000E+00
     -7.382  0.0000E+00  0.0000E+00
     -7.361  0.0000E+00  0.0000E+00
     -7.341  0.0000E+00  0.0000E+00
     -7.320  0.0000E+00  0.0000E+00
     -7.299  0.0000E+00  0.0000E+00
     -7.279  0.0000E+00  0.0000E+00
     -7.258  0.0000E+00  0.0000E+00
     -7.237  0.0000E+00  0.0000E+00
     -7.217  0.0000E+00  0.0000E+00
     -7.196  0.0000E+00  0.0000E+00
     -7.175  0.0000E+00  0.0000E+00
     -7.155  0.0000E+00  0.0000E+00
     -7.134  0.0000E+00  0.0000E+00
     -7.113  0.0000E+00  0.0000E+00
     -7.093  0.0000E+00  0.0000E+00
     -7.072  0.0000E+00  0.0000E+00
     -7.051  0.0000E+00  0.0000E+00
     -7.031  0.0000E+00  0.0000E+00
     -7.010  0.0000E+00  0.0000E+00
     -6.989  0.0000E+00  0.0000E+00
     -6.969  0.0000E+00  0.0000E+00
     -6.948  0.0000E+00  0.0000E+00
     -6.927  0.0000E+00  0.0000E+00
     -6.907  0.0000E+00  0.0000E+00
     -6.886  0.0000E+00  0.0000E+00
     -6.865  0.0000E+00  0.0000E+00
     -6.845  0.0000E+00  0.0000E+00
     -6.824  0.0000E+00  0.0000E+00
     -6.803  0.0000E+00  0.0000E+00
     -6.783  0.0000E+00  0.0000E+00
     -6.762  0.0000E+00  0.0000E+00
     -6.741  0.0000E+00  0.0000E+00
     -6.721  0.0000E+00  0.0000E+00
     -6.700  0.0000E+00  0.0000E+00
     -6.679  0.0000E+00  0.0000E+00
     -6.659  0.0000E+00  0.0000E+00
     -6.638  0.0000E+00  0.0000E+00
     -6.617  0.0000E+00  0.0000E+00
     -6.597  0.0000E+00  0.0000E+00
     -6.576  0.0000E+00  0.0000E+00
     -6.555  0.0000E+00  0.0000E+00
     -6.535  0.0000E+00  0.0000E+00
     -6.514  0.0000E+00  0.0000E+00
     -6.493  0.0000E+00  0.0000E+00
     -6.473  0.0000E+00  0.0000E+00
     -6.452  0.0000E+00  0.0000E+00
     -6.431  0.0000E+00  0.0000E+00
     -6.411  0.0000E+00  0.0000E+00
     -6.390  0.0000E+00  0.0000E+00
     -6.369  0.0000E+00  0.0000E+00
     -6.349  0.0000E+00  0.0000E+00
     -6.328  0.0000E+00  0.0000E+00
     -6.307  0.0000E+00  0.0000E+00
     -6.287  0.0000E+00  0.0000E+00
     -6.266  0.0000E+00  0.0000E+00
     -6.245  0.0000E+00  0.0000E+00
     -6.225  0.0000E+00  0.0000E+00
     -6.204  0.0000E+00  0.0000E+00
     -6.183  0.0000E+00  0.0000E+00
     -6.163  0.0000E+00  0.0000E+00
     -6.142  0.0000E+00  0.0000E+00
     -6.121  0.0000E+00  0.0000E+00
     -6.101  0.1529E+00  0.2708E-02
     -6.080  0.2254E+00  0.6599E-02
     -6.059  0.3082E+00  0.1210E-01
     -6.039  0.4012E+00  0.1941E-01
     -6.018  0.4365E+00  0.2874E-01
     -5.997  0.4778E+00  0.3820E-01
     -5.977  0.5139E+00  0.4846E-01
     -5.956  0.5448E+00  0.5941E-01
     -5.935  0.5706E+00  0.7095E-01
     -5.915  0.6070E+00  0.8308E-01
     -5.894  0.6492E+00  0.9606E-01
     -5.873  0.6943E+00  0.1099E+00
     -5.853  0.7422E+00  0.1248E+00
     -5.832  0.7565E+00  0.1403E+00
     -5.811  0.7805E+00  0.1562E+00
     -5.790  0.8004E+00  0.1725E+00
     -5.770  0.8162E+00  0.1892E+00
     -5.749  0.8342E+00  0.2063E+00
     -5.728  0.8585E+00  0.2238E+00
     -5.708  0.8843E+00  0.2418E+00
     -5.687  0.9115E+00  0.2603E+00
     -5.666  0.9400E+00  0.2795E+00
     -5.646  0.9687E+00  0.2992E+00
     -5.625  0.9974E+00  0.3195E+00
     -5.604  0.1026E+01  0.3404E+00
     -5.584  0.1055E+01  0.3619E+00
     -5.563  0.1064E+01  0.3837E+00
     -5.542  0.1081E+01  0.4059E+00
     -5.522  0.1098E+01  0.4284E+00
     -5.501  0.1112E+01  0.4513E+00
     -5.480  0.1130E+01  0.4744E+00
     -5.460  0.1149E+01  0.4980E+00
     -5.439  0.1169E+01  0.5219E+00
     -5.418  0.1189E+01  0.5463E+00
     -5.398  0.1209E+01  0.5711E+00
     -5.377  0.1229E+01  0.5963E+00
     -5.356  0.1249E+01  0.6219E+00
     -5.336  0.1268E+01  0.6479E+00
     -5.315  0.1291E+01  0.6744E+00
     -5.294  0.1314E+01  0.7013E+00
     -5.274  0.1338E+01  0.7287E+00
     -5.253  0.1363E+01  0.7566E+00
     -5.232  0.1660E+01  0.7926E+00
     -5.212  0.1718E+01  0.8276E+00
     -5.191  0.1767E+01  0.8636E+00
     -5.170  0.1808E+01  0.9006E+00
     -5.150  0.1674E+01  0.9371E+00
     -5.129  0.1646E+01  0.9714E+00
     -5.108  0.1618E+01  0.1005E+01
     -5.088  0.1590E+01  0.1038E+01
     -5.067  0.1573E+01  0.1071E+01
     -5.046  0.1565E+01  0.1103E+01
     -5.026  0.1555E+01  0.1136E+01
     -5.005  0.1543E+01  0.1168E+01
     -4.984  0.1469E+01  0.1199E+01
     -4.964  0.1435E+01  0.1229E+01
     -4.943  0.1401E+01  0.1258E+01
     -4.922  0.1368E+01  0.1287E+01
     -4.902  0.1351E+01  0.1315E+01
     -4.881  0.1331E+01  0.1343E+01
     -4.860  0.1311E+01  0.1370E+01
     -4.840  0.1290E+01  0.1397E+01
     -4.819  0.1268E+01  0.1423E+01
     -4.798  0.1651E+01  0.1460E+01
     -4.778  0.1745E+01  0.1495E+01
     -4.757  0.1847E+01  0.1532E+01
     -4.736  0.1925E+01  0.1571E+01
     -4.716  0.1795E+01  0.1608E+01
     -4.695  0.1806E+01  0.1645E+01
     -4.674  0.1819E+01  0.1683E+01
     -4.654  0.1841E+01  0.1721E+01
     -4.633  0.1883E+01  0.1759E+01
     -4.612  0.1926E+01  0.1799E+01
     -4.592  0.1971E+01  0.1839E+01
     -4.571  0.1950E+01  0.1879E+01
     -4.550  0.1961E+01  0.1920E+01
     -4.530  0.1980E+01  0.1961E+01
     -4.509  0.2001E+01  0.2002E+01
     -4.488  0.2030E+01  0.2043E+01
     -4.468  0.2060E+01  0.2086E+01
     -4.447  0.2089E+01  0.2129E+01
     -4.426  0.2199E+01  0.2180E+01
     -4.406  0.2186E+01  0.2225E+01
     -4.385  0.2177E+01  0.2270E+01
     -4.364  0.2103E+01  0.2314E+01
     -4.344  0.2186E+01  0.2358E+01
     -4.323  0.2234E+01  0.2404E+01
     -4.302  0.2274E+01  0.2450E+01
     -4.282  0.2300E+01  0.2498E+01
     -4.261  0.2290E+01  0.2545E+01
     -4.240  0.2307E+01  0.2593E+01
     -4.220  0.2322E+01  0.2640E+01
     -4.199  0.2337E+01  0.2689E+01
     -4.178  0.2366E+01  0.2737E+01
     -4.158  0.2381E+01  0.2786E+01
     -4.137  0.2395E+01  0.2835E+01
     -4.116  0.2408E+01  0.2885E+01
     -4.096  0.2432E+01  0.2935E+01
     -4.075  0.2557E+01  0.2987E+01
     -4.054  0.3096E+01  0.3058E+01
     -4.034  0.3109E+01  0.3122E+01
     -4.013  0.2870E+01  0.3184E+01
     -3.992  0.2868E+01  0.3244E+01
     -3.972  0.2860E+01  0.3303E+01
     -3.951  0.2846E+01  0.3362E+01
     -3.930  0.2725E+01  0.3422E+01
     -3.910  0.2699E+01  0.3478E+01
     -3.889  0.2661E+01  0.3533E+01
     -3.868  0.2640E+01  0.3588E+01
     -3.848  0.3103E+01  0.3644E+01
     -3.827  0.2978E+01  0.3707E+01
     -3.806  0.2859E+01  0.3768E+01
     -3.786  0.2540E+01  0.3830E+01
     -3.765  0.2631E+01  0.3884E+01
     -3.744  0.2775E+01  0.3939E+01
     -3.724  0.2935E+01  0.3998E+01
     -3.703  0.4431E+01  0.4078E+01
     -3.682  0.3922E+01  0.4177E+01
     -3.662  0.3960E+01  0.4259E+01
     -3.641  0.4095E+01  0.4343E+01
     -3.620  0.3921E+01  0.4427E+01
     -3.600  0.3754E+01  0.4506E+01
     -3.579  0.3159E+01  0.4574E+01
     -3.558  0.3101E+01  0.4639E+01
     -3.538  0.3026E+01  0.4702E+01
     -3.517  0.2991E+01  0.4765E+01
     -3.496  0.2982E+01  0.4826E+01
     -3.476  0.3028E+01  0.4888E+01
     -3.455  0.3089E+01  0.4951E+01
     -3.434  0.3178E+01  0.5016E+01
     -3.414  0.3302E+01  0.5083E+01
     -3.393  0.3458E+01  0.5153E+01
     -3.372  0.3654E+01  0.5226E+01
     -3.352  0.3752E+01  0.5303E+01
     -3.331  0.3014E+01  0.5375E+01
     -3.310  0.2946E+01  0.5437E+01
     -3.290  0.2869E+01  0.5497E+01
     -3.269  0.2797E+01  0.5555E+01
     -3.248  0.2758E+01  0.5613E+01
     -3.228  0.2721E+01  0.5669E+01
     -3.207  0.2685E+01  0.5725E+01
     -3.186  0.2652E+01  0.5780E+01
     -3.166  0.2531E+01  0.5834E+01
     -3.145  0.2513E+01  0.5886E+01
     -3.124  0.2495E+01  0.5938E+01
     -3.104  0.2481E+01  0.5989E+01
     -3.083  0.2469E+01  0.6040E+01
     -3.062  0.2735E+01  0.6094E+01
     -3.042  0.2688E+01  0.6151E+01
     -3.021  0.2538E+01  0.6205E+01
     -3.000  0.2582E+01  0.6257E+01
     -2.980  0.2677E+01  0.6312E+01
     -2.959  0.2810E+01  0.6368E+01
     -2.938  0.2971E+01  0.6428E+01
     -2.918  0.3111E+01  0.6492E+01
     -2.897  0.2638E+01  0.6556E+01
     -2.876  0.2532E+01  0.6610E+01
     -2.856  0.2436E+01  0.6661E+01
     -2.835  0.2351E+01  0.6711E+01
     -2.814  0.2276E+01  0.6758E+01
     -2.794  0.2211E+01  0.6805E+01
     -2.773  0.2151E+01  0.6850E+01
     -2.752  0.2095E+01  0.6894E+01
     -2.731  0.2043E+01  0.6936E+01
     -2.711  0.1996E+01  0.6978E+01
     -2.690  0.1953E+01  0.7019E+01
     -2.669  0.1940E+01  0.7059E+01
     -2.649  0.1906E+01  0.7099E+01
     -2.628  0.1819E+01  0.7137E+01
     -2.607  0.1796E+01  0.7175E+01
     -2.587  0.1772E+01  0.7212E+01
     -2.566  0.1749E+01  0.7248E+01
     -2.545  0.1724E+01  0.7284E+01
     -2.525  0.1700E+01  0.7319E+01
     -2.504  0.1675E+01  0.7354E+01
     -2.483  0.1654E+01  0.7388E+01
     -2.463  0.1665E+01  0.7423E+01
     -2.442  0.1680E+01  0.7457E+01
     -2.421  0.1693E+01  0.7492E+01
     -2.401  0.1705E+01  0.7527E+01
     -2.380  0.1741E+01  0.7563E+01
     -2.359  0.2539E+01  0.7606E+01
     -2.339  0.4461E+01  0.7670E+01
     -2.318  0.2844E+01  0.7777E+01
     -2.297  0.2192E+01  0.7829E+01
     -2.277  0.1633E+01  0.7868E+01
     -2.256  0.1267E+01  0.7897E+01
     -2.235  0.1077E+01  0.7921E+01
     -2.215  0.8998E+00  0.7942E+01
     -2.194  0.9174E+00  0.7960E+01
     -2.173  0.7685E+00  0.7978E+01
     -2.153  0.0000E+00  0.8000E+01
     -2.132  0.0000E+00  0.8000E+01
     -2.111  0.0000E+00  0.8000E+01
     -2.091  0.0000E+00  0.8000E+01
     -2.070  0.0000E+00  0.8000E+01
     -2.049  0.0000E+00  0.8000E+01
     -2.029  0.0000E+00  0.8000E+01
     -2.008  0.0000E+00  0.8000E+01
     -1.987  0.0000E+00  0.8000E+01
     -1.967  0.0000E+00  0.8000E+01
     -1.946  0.0000E+00  0.8000E+01
     -1.925  0.0000E+00  0.8000E+01
     -1.905  0.0000E+00  0.8000E+01
     -1.884  0.0000E+00  0.8000E+01
     -1.863  0.0000E+00  0.8000E+01
     -1.843  0.0000E+00  0.8000E+01
     -1.822  0.0000E+00  0.8000E+01
     -1.801  0.0000E+00  0.8000E+01
     -1.781  0.0000E+00  0.8000E+01
     -1.760  0.0000E+00  0.8000E+01
     -1.739  0.0000E+00  0.8000E+01
     -1.719  0.0000E+00  0.8000E+01
     -1.698  0.0000E+00  0.8000E+01
     -1.677  0.0000E+00  0.8000E+01
     -1.657  0.0000E+00  0.8000E+01
     -1.636  0.0000E+00  0.8000E+01
     -1.615  0.0000E+00  0.8000E+01
     -1.595  0.0000E+00  0.8000E+01
     -1.574  0.2126E+01  0.8050E+01
     -1.553  0.2658E+01  0.8099E+01
     -1.533  0.2576E+01  0.8153E+01
     -1.512  0.2066E+01  0.8232E+01
     -1.491  0.1925E+01  0.8274E+01
     -1.471  0.1696E+01  0.8312E+01
     -1.450  0.1699E+01  0.8347E+01
     -1.429  0.1703E+01  0.8382E+01
     -1.409  0.1706E+01  0.8417E+01
     -1.388  0.1708E+01  0.8452E+01
     -1.367  0.1711E+01  0.8488E+01
     -1.347  0.1699E+01  0.8523E+01
     -1.326  0.1694E+01  0.8558E+01
     -1.305  0.1730E+01  0.8593E+01
     -1.285  0.1770E+01  0.8630E+01
     -1.264  0.1813E+01  0.8667E+01
     -1.243  0.1859E+01  0.8704E+01
     -1.223  0.1921E+01  0.8743E+01
     -1.202  0.1965E+01  0.8784E+01
     -1.181  0.2008E+01  0.8825E+01
     -1.161  0.2050E+01  0.8867E+01
     -1.140  0.2093E+01  0.8909E+01
     -1.119  0.2125E+01  0.8953E+01
     -1.099  0.2672E+01  0.9006E+01
     -1.078  0.3154E+01  0.9066E+01
     -1.057  0.3788E+01  0.9142E+01
     -1.037  0.3948E+01  0.9222E+01
     -1.016  0.4335E+01  0.9306E+01
     -0.995  0.5529E+01  0.9406E+01
     -0.975  0.6792E+01  0.9533E+01
     -0.954  0.9194E+01  0.9694E+01
     -0.933  0.6888E+01  0.9873E+01
     -0.913  0.6396E+01  0.1001E+02
     -0.892  0.5786E+01  0.1014E+02
     -0.871  0.5570E+01  0.1025E+02
     -0.851  0.5641E+01  0.1037E+02
     -0.830  0.5126E+01  0.1048E+02
     -0.809  0.4744E+01  0.1058E+02
     -0.789  0.4749E+01  0.1068E+02
     -0.768  0.3802E+01  0.1076E+02
     -0.747  0.3688E+01  0.1084E+02
     -0.727  0.3620E+01  0.1092E+02
     -0.706  0.3551E+01  0.1099E+02
     -0.685  0.3481E+01  0.1106E+02
     -0.665  0.3409E+01  0.1113E+02
     -0.644  0.3337E+01  0.1120E+02
     -0.623  0.3264E+01  0.1127E+02
     -0.603  0.3168E+01  0.1134E+02
     -0.582  0.3086E+01  0.1140E+02
     -0.561  0.3000E+01  0.1147E+02
     -0.541  0.2903E+01  0.1153E+02
     -0.520  0.2811E+01  0.1159E+02
     -0.499  0.2740E+01  0.1164E+02
     -0.479  0.2682E+01  0.1170E+02
     -0.458  0.2641E+01  0.1175E+02
     -0.437  0.2605E+01  0.1181E+02
     -0.417  0.2568E+01  0.1186E+02
     -0.396  0.2531E+01  0.1191E+02
     -0.375  0.2494E+01  0.1197E+02
     -0.355  0.2510E+01  0.1202E+02
     -0.334  0.2445E+01  0.1207E+02
     -0.313  0.2380E+01  0.1212E+02
     -0.293  0.2335E+01  0.1217E+02
     -0.272  0.2295E+01  0.1222E+02
     -0.251  0.2257E+01  0.1226E+02
     -0.231  0.2222E+01  0.1231E+02
     -0.210  0.2188E+01  0.1235E+02
     -0.189  0.2155E+01  0.1240E+02
     -0.169  0.2169E+01  0.1244E+02
     -0.148  0.2136E+01  0.1249E+02
     -0.127  0.2032E+01  0.1254E+02
     -0.107  0.2025E+01  0.1258E+02
     -0.086  0.2018E+01  0.1262E+02
     -0.065  0.1997E+01  0.1266E+02
     -0.045  0.1970E+01  0.1270E+02
     -0.024  0.1937E+01  0.1274E+02
     -0.003  0.1805E+01  0.1278E+02
      0.017  0.1785E+01  0.1282E+02
      0.038  0.1765E+01  0.1286E+02
      0.059  0.1746E+01  0.1289E+02
      0.079  0.1729E+01  0.1293E+02
      0.100  0.1712E+01  0.1296E+02
      0.121  0.1697E+01  0.1300E+02
      0.141  0.1683E+01  0.1304E+02
      0.162  0.1670E+01  0.1307E+02
      0.183  0.1661E+01  0.1310E+02
      0.203  0.1660E+01  0.1314E+02
      0.224  0.1658E+01  0.1317E+02
      0.245  0.1655E+01  0.1321E+02
      0.265  0.1651E+01  0.1324E+02
      0.286  0.1581E+01  0.1329E+02
      0.307  0.1574E+01  0.1332E+02
      0.328  0.1570E+01  0.1335E+02
      0.348  0.1563E+01  0.1338E+02
      0.369  0.1554E+01  0.1342E+02
      0.390  0.1545E+01  0.1345E+02
      0.410  0.1535E+01  0.1348E+02
      0.431  0.1525E+01  0.1351E+02
      0.452  0.1513E+01  0.1354E+02
      0.472  0.1501E+01  0.1357E+02
      0.493  0.1487E+01  0.1361E+02
      0.514  0.1473E+01  0.1364E+02
      0.534  0.1408E+01  0.1366E+02
      0.555  0.1396E+01  0.1369E+02
      0.576  0.1384E+01  0.1372E+02
      0.596  0.1372E+01  0.1375E+02
      0.617  0.1360E+01  0.1378E+02
      0.638  0.1347E+01  0.1381E+02
      0.658  0.1335E+01  0.1383E+02
      0.679  0.1323E+01  0.1386E+02
      0.700  0.1310E+01  0.1389E+02
      0.720  0.1249E+01  0.1392E+02
      0.741  0.1239E+01  0.1394E+02
      0.762  0.1248E+01  0.1397E+02
      0.782  0.1235E+01  0.1400E+02
      0.803  0.1223E+01  0.1402E+02
      0.824  0.1211E+01  0.1405E+02
      0.844  0.1200E+01  0.1407E+02
      0.865  0.1189E+01  0.1410E+02
      0.886  0.1179E+01  0.1412E+02
      0.906  0.1169E+01  0.1415E+02
      0.927  0.1159E+01  0.1417E+02
      0.948  0.1150E+01  0.1420E+02
      0.968  0.1141E+01  0.1422E+02
      0.989  0.1132E+01  0.1424E+02
      1.010  0.1124E+01  0.1427E+02
      1.030  0.1117E+01  0.1429E+02
      1.051  0.1110E+01  0.1431E+02
      1.072  0.1103E+01  0.1434E+02
      1.092  0.1097E+01  0.1436E+02
      1.113  0.1091E+01  0.1438E+02
      1.134  0.1086E+01  0.1440E+02
      1.154  0.1081E+01  0.1443E+02
      1.175  0.1085E+01  0.1445E+02
      1.196  0.1083E+01  0.1447E+02
      1.216  0.1081E+01  0.1449E+02
      1.237  0.1080E+01  0.1452E+02
      1.258  0.1077E+01  0.1454E+02
      1.278  0.1154E+01  0.1456E+02
      1.299  0.1175E+01  0.1459E+02
      1.320  0.1198E+01  0.1461E+02
      1.340  0.1229E+01  0.1463E+02
      1.361  0.1258E+01  0.1466E+02
      1.382  0.1297E+01  0.1469E+02
      1.402  0.1345E+01  0.1471E+02
      1.423  0.1403E+01  0.1474E+02
      1.444  0.1471E+01  0.1477E+02
      1.464  0.1548E+01  0.1480E+02
      1.485  0.2606E+01  0.1484E+02
      1.506  0.2324E+01  0.1489E+02
      1.526  0.2244E+01  0.1494E+02
      1.547  0.2200E+01  0.1498E+02
      1.568  0.2670E+01  0.1504E+02
      1.588  0.2758E+01  0.1509E+02
      1.609  0.2610E+01  0.1515E+02
      1.630  0.2479E+01  0.1520E+02
      1.650  0.2890E+01  0.1525E+02
      1.671  0.2948E+01  0.1531E+02
      1.692  0.3016E+01  0.1538E+02
      1.712  0.3095E+01  0.1544E+02
      1.733  0.4831E+01  0.1551E+02
      1.754  0.5856E+01  0.1562E+02
      1.774  0.5270E+01  0.1574E+02
      1.795  0.5119E+01  0.1586E+02
      1.816  0.5049E+01  0.1597E+02
      1.836  0.4954E+01  0.1607E+02
      1.857  0.4934E+01  0.1618E+02
      1.878  0.4919E+01  0.1628E+02
      1.898  0.4608E+01  0.1638E+02
      1.919  0.4494E+01  0.1648E+02
      1.940  0.4284E+01  0.1657E+02
      1.960  0.4130E+01  0.1665E+02
      1.981  0.4041E+01  0.1674E+02
      2.002  0.4001E+01  0.1682E+02
      2.022  0.3972E+01  0.1690E+02
      2.043  0.3868E+01  0.1698E+02
      2.064  0.3808E+01  0.1706E+02
      2.084  0.3764E+01  0.1714E+02
      2.105  0.3779E+01  0.1722E+02
      2.126  0.3793E+01  0.1730E+02
      2.146  0.3803E+01  0.1738E+02
      2.167  0.3813E+01  0.1745E+02
      2.188  0.3868E+01  0.1755E+02
      2.208  0.3909E+01  0.1763E+02
      2.229  0.3983E+01  0.1771E+02
      2.250  0.4070E+01  0.1779E+02
      2.270  0.4170E+01  0.1788E+02
      2.291  0.4745E+01  0.1801E+02
      2.312  0.4816E+01  0.1811E+02
      2.332  0.4638E+01  0.1821E+02
      2.353  0.4562E+01  0.1830E+02
      2.374  0.4492E+01  0.1840E+02
      2.394  0.4433E+01  0.1849E+02
      2.415  0.4573E+01  0.1858E+02
      2.436  0.4147E+01  0.1867E+02
      2.456  0.4025E+01  0.1876E+02
      2.477  0.3981E+01  0.1884E+02
      2.498  0.3951E+01  0.1892E+02
      2.518  0.3933E+01  0.1900E+02
      2.539  0.4198E+01  0.1909E+02
      2.560  0.4201E+01  0.1918E+02
      2.580  0.4091E+01  0.1927E+02
      2.601  0.4028E+01  0.1935E+02
      2.622  0.3937E+01  0.1943E+02
      2.642  0.4059E+01  0.1951E+02
      2.663  0.4524E+01  0.1961E+02
      2.684  0.4861E+01  0.1971E+02
      2.704  0.4959E+01  0.1981E+02
      2.725  0.5027E+01  0.1991E+02
      2.746  0.5110E+01  0.2002E+02
      2.766  0.4963E+01  0.2012E+02
      2.787  0.4980E+01  0.2022E+02
      2.808  0.4989E+01  0.2033E+02
      2.828  0.5101E+01  0.2043E+02
      2.849  0.5212E+01  0.2054E+02
      2.870  0.5252E+01  0.2065E+02
      2.890  0.5283E+01  0.2076E+02
      2.911  0.5308E+01  0.2087E+02
      2.932  0.5333E+01  0.2098E+02
      2.952  0.6158E+01  0.2110E+02
      2.973  0.5749E+01  0.2123E+02
      2.994  0.5615E+01  0.2134E+02
      3.014  0.4809E+01  0.2146E+02
      3.035  0.5032E+01  0.2156E+02
      3.056  0.5419E+01  0.2167E+02
      3.076  0.5934E+01  0.2179E+02
      3.097  0.6903E+01  0.2192E+02
      3.118  0.8535E+01  0.2207E+02
      3.138  0.7049E+01  0.2224E+02
      3.159  0.7251E+01  0.2238E+02
      3.180  0.7469E+01  0.2254E+02
      3.200  0.7656E+01  0.2269E+02
      3.221  0.6014E+01  0.2284E+02
      3.242  0.5051E+01  0.2295E+02
      3.262  0.4824E+01  0.2305E+02
      3.283  0.4606E+01  0.2315E+02
      3.304  0.4398E+01  0.2324E+02
      3.324  0.4198E+01  0.2333E+02
      3.345  0.4394E+01  0.2342E+02
      3.366  0.4307E+01  0.2351E+02
      3.387  0.4458E+01  0.2360E+02
      3.407  0.4918E+01  0.2370E+02
      3.428  0.5393E+01  0.2380E+02
      3.449  0.5660E+01  0.2392E+02
      3.469  0.6132E+01  0.2404E+02
      3.490  0.6631E+01  0.2417E+02
      3.511  0.6788E+01  0.2431E+02
      3.531  0.6689E+01  0.2445E+02
      3.552  0.6695E+01  0.2459E+02
      3.573  0.6605E+01  0.2473E+02
      3.593  0.6553E+01  0.2487E+02
      3.614  0.6194E+01  0.2500E+02
      3.635  0.5804E+01  0.2512E+02
      3.655  0.5452E+01  0.2524E+02
      3.676  0.5089E+01  0.2535E+02
      3.697  0.4968E+01  0.2545E+02
      3.717  0.4760E+01  0.2556E+02
      3.738  0.4703E+01  0.2565E+02
      3.759  0.4652E+01  0.2575E+02
      3.779  0.5032E+01  0.2585E+02
      3.800  0.5135E+01  0.2596E+02
      3.821  0.5475E+01  0.2607E+02
      3.841  0.4893E+01  0.2617E+02
      3.862  0.5045E+01  0.2628E+02
      3.883  0.4625E+01  0.2638E+02
      3.903  0.4451E+01  0.2647E+02
      3.924  0.4770E+01  0.2657E+02
      3.945  0.4743E+01  0.2667E+02
      3.965  0.4775E+01  0.2677E+02
      3.986  0.4840E+01  0.2688E+02
      4.007  0.4905E+01  0.2698E+02
      4.027  0.4979E+01  0.2708E+02
      4.048  0.5052E+01  0.2718E+02
      4.069  0.5103E+01  0.2729E+02
      4.089  0.5788E+01  0.2740E+02
      4.110  0.5450E+01  0.2752E+02
      4.131  0.5024E+01  0.2763E+02
      4.151  0.4805E+01  0.2774E+02
      4.172  0.4762E+01  0.2784E+02
      4.193  0.4725E+01  0.2793E+02
      4.213  0.4695E+01  0.2803E+02
      4.234  0.4670E+01  0.2813E+02
      4.255  0.4660E+01  0.2822E+02
      4.275  0.4901E+01  0.2833E+02
      4.296  0.5948E+01  0.2844E+02
      4.317  0.6109E+01  0.2857E+02
      4.337  0.5528E+01  0.2869E+02
      4.358  0.5281E+01  0.2880E+02
      4.379  0.5578E+01  0.2892E+02
      4.399  0.5022E+01  0.2904E+02
      4.420  0.4301E+01  0.2913E+02
      4.441  0.4091E+01  0.2922E+02
      4.461  0.3887E+01  0.2930E+02
      4.482  0.3818E+01  0.2938E+02
      4.503  0.3855E+01  0.2946E+02
      4.523  0.3683E+01  0.2954E+02
      4.544  0.3460E+01  0.2961E+02
      4.565  0.3186E+01  0.2968E+02
      4.585  0.2672E+01  0.2974E+02
      4.606  0.2866E+01  0.2980E+02
      4.627  0.3068E+01  0.2986E+02
      4.647  0.3284E+01  0.2993E+02
      4.668  0.3617E+01  0.3000E+02
      4.689  0.3849E+01  0.3008E+02
      4.709  0.3952E+01  0.3016E+02
      4.730  0.4490E+01  0.3025E+02
      4.751  0.1657E+02  0.3035E+02
      4.771  0.4590E+01  0.3046E+02
      4.792  0.4278E+01  0.3056E+02
      4.813  0.3865E+01  0.3064E+02
      4.833  0.3288E+01  0.3072E+02
      4.854  0.2473E+01  0.3077E+02
      4.875  0.2411E+01  0.3082E+02
      4.895  0.2354E+01  0.3087E+02
      4.916  0.2399E+01  0.3092E+02
      4.937  0.2404E+01  0.3097E+02
      4.957  0.2337E+01  0.3102E+02
      4.978  0.2202E+01  0.3107E+02
      4.999  0.2099E+01  0.3111E+02
      5.019  0.2032E+01  0.3115E+02
      5.040  0.1962E+01  0.3120E+02
      5.061  0.1887E+01  0.3124E+02
      5.081  0.1816E+01  0.3127E+02
      5.102  0.1764E+01  0.3131E+02
      5.123  0.1724E+01  0.3135E+02
      5.143  0.1687E+01  0.3138E+02
      5.164  0.1640E+01  0.3142E+02
      5.185  0.1582E+01  0.3145E+02
      5.205  0.1775E+01  0.3148E+02
      5.226  0.1404E+01  0.3152E+02
      5.247  0.1364E+01  0.3155E+02
      5.267  0.1326E+01  0.3157E+02
      5.288  0.1289E+01  0.3160E+02
      5.309  0.1412E+01  0.3163E+02
      5.329  0.1429E+01  0.3166E+02
      5.350  0.1278E+01  0.3169E+02
      5.371  0.1211E+01  0.3171E+02
      5.391  0.1161E+01  0.3174E+02
      5.412  0.1109E+01  0.3176E+02
      5.433  0.1055E+01  0.3178E+02
      5.453  0.1173E+01  0.3180E+02
      5.474  0.1006E+01  0.3183E+02
      5.495  0.8377E+00  0.3185E+02
      5.515  0.7168E+00  0.3186E+02
      5.536  0.6650E+00  0.3188E+02
      5.557  0.6217E+00  0.3189E+02
      5.577  0.5811E+00  0.3190E+02
      5.598  0.5434E+00  0.3191E+02
      5.619  0.7602E+00  0.3193E+02
      5.639  0.7156E+00  0.3194E+02
      5.660  0.6323E+00  0.3196E+02
      5.681  0.5103E+00  0.3197E+02
      5.701  0.3496E+00  0.3198E+02
      5.722  0.2715E+00  0.3199E+02
      5.743  0.2037E+00  0.3199E+02
      5.763  0.1433E+00  0.3199E+02
      5.784  0.0000E+00  0.3200E+02
      5.805  0.0000E+00  0.3200E+02
      5.825  0.0000E+00  0.3200E+02
      5.846  0.0000E+00  0.3200E+02
      5.867  0.0000E+00  0.3200E+02
      5.887  0.0000E+00  0.3200E+02
      5.908  0.0000E+00  0.3200E+02
      5.929  0.0000E+00  0.3200E+02
      5.949  0.0000E+00  0.3200E+02
      5.970  0.0000E+00  0.3200E+02
      5.991  0.0000E+00  0.3200E+02
      6.011  0.0000E+00  0.3200E+02
      6.032  0.0000E+00  0.3200E+02
      6.053  0.0000E+00  0.3200E+02
      6.073  0.0000E+00  0.3200E+02
      6.094  0.0000E+00  0.3200E+02
      6.115  0.0000E+00  0.3200E+02
      6.135  0.0000E+00  0.3200E+02
      6.156  0.0000E+00  0.3200E+02
      6.177  0.0000E+00  0.3200E+02
      6.197  0.0000E+00  0.3200E+02
      6.218  0.0000E+00  0.3200E+02
      6.239  0.0000E+00  0.3200E+02
      6.259  0.0000E+00  0.3200E+02
      6.280  0.0000E+00  0.3200E+02
      6.301  0.0000E+00  0.3200E+02
      6.321  0.0000E+00  0.3200E+02
      6.342  0.0000E+00  0.3200E+02
      6.363  0.0000E+00  0.3200E+02
      6.383  0.0000E+00  0.3200E+02
      6.404  0.0000E+00  0.3200E+02
      6.425  0.0000E+00  0.3200E+02
      6.445  0.0000E+00  0.3200E+02
      6.466  0.0000E+00  0.3200E+02
      6.487  0.0000E+00  0.3200E+02
      6.508  0.0000E+00  0.3200E+02
      6.528  0.1014E+01  0.3201E+02
      6.549  0.9314E+00  0.3203E+02
      6.570  0.7082E+00  0.3205E+02
      6.590  0.6122E+00  0.3206E+02
      6.611  0.6466E+00  0.3208E+02
      6.632  0.6815E+00  0.3209E+02
      6.652  0.7167E+00  0.3210E+02
      6.673  0.7524E+00  0.3212E+02
      6.694  0.7885E+00  0.3214E+02
      6.714  0.8251E+00  0.3215E+02
      6.735  0.8277E+00  0.3217E+02
      6.756  0.8732E+00  0.3219E+02
      6.776  0.9283E+00  0.3221E+02
      6.797  0.9887E+00  0.3223E+02
      6.818  0.1146E+01  0.3225E+02
      6.838  0.1284E+01  0.3228E+02
      6.859  0.2248E+01  0.3232E+02
      6.880  0.1395E+01  0.3236E+02
      6.900  0.1462E+01  0.3239E+02
      6.921  0.1532E+01  0.3242E+02
      6.942  0.1605E+01  0.3245E+02
      6.962  0.1681E+01  0.3249E+02
      6.983  0.1903E+01  0.3253E+02
      7.004  0.1987E+01  0.3257E+02
      7.024  0.2002E+01  0.3261E+02
      7.045  0.2031E+01  0.3265E+02
      7.066  0.2068E+01  0.3269E+02
      7.086  0.2056E+01  0.3273E+02
      7.107  0.2007E+01  0.3278E+02
      7.128  0.1985E+01  0.3282E+02
      7.148  0.1964E+01  0.3286E+02
      7.169  0.1973E+01  0.3290E+02
      7.190  0.1998E+01  0.3294E+02
      7.210  0.2033E+01  0.3298E+02
      7.231  0.2073E+01  0.3302E+02
      7.252  0.2117E+01  0.3307E+02
      7.272  0.2261E+01  0.3312E+02
      7.293  0.2322E+01  0.3317E+02
      7.314  0.2384E+01  0.3322E+02
      7.334  0.2449E+01  0.3327E+02
      7.355  0.2517E+01  0.3332E+02
      7.376  0.2538E+01  0.3337E+02
      7.396  0.2617E+01  0.3342E+02
      7.417  0.2706E+01  0.3348E+02
      7.438  0.2750E+01  0.3354E+02
      7.458  0.2794E+01  0.3359E+02
      7.479  0.3184E+01  0.3365E+02
      7.500  0.3113E+01  0.3372E+02
      7.520  0.3187E+01  0.3378E+02
      7.541  0.3284E+01  0.3385E+02
      7.562  0.3396E+01  0.3392E+02
      7.582  0.3604E+01  0.3399E+02
      7.603  0.3684E+01  0.3407E+02
      7.624  0.3761E+01  0.3415E+02
      7.644  0.3908E+01  0.3423E+02
      7.665  0.4204E+01  0.3431E+02
      7.686  0.4342E+01  0.3440E+02
      7.706  0.4408E+01  0.3449E+02
      7.727  0.4388E+01  0.3458E+02
      7.748  0.4491E+01  0.3467E+02
      7.768  0.4590E+01  0.3477E+02
      7.789  0.4696E+01  0.3486E+02
      7.810  0.4781E+01  0.3496E+02
      7.830  0.4751E+01  0.3506E+02
      7.851  0.4702E+01  0.3516E+02
      7.872  0.4610E+01  0.3526E+02
      7.892  0.4496E+01  0.3535E+02
      7.913  0.4563E+01  0.3544E+02
      7.934  0.4734E+01  0.3554E+02
      7.954  0.5378E+01  0.3565E+02
      7.975  0.7114E+01  0.3578E+02
      7.996  0.7531E+01  0.3593E+02
      8.016  0.7334E+01  0.3608E+02
      8.037  0.7326E+01  0.3624E+02
      8.058  0.7060E+01  0.3639E+02
      8.078  0.6798E+01  0.3653E+02
      8.099  0.6625E+01  0.3667E+02
      8.120  0.5597E+01  0.3680E+02
      8.140  0.4878E+01  0.3691E+02
      8.161  0.5940E+01  0.3701E+02
      8.182  0.4872E+01  0.3711E+02
      8.202  0.5101E+01  0.3722E+02
      8.223  0.5409E+01  0.3733E+02
      8.244  0.5538E+01  0.3745E+02
      8.264  0.5469E+01  0.3756E+02
      8.285  0.5416E+01  0.3767E+02
      8.306  0.5351E+01  0.3778E+02
      8.326  0.5311E+01  0.3789E+02
      8.347  0.5434E+01  0.3801E+02
      8.368  0.5646E+01  0.3812E+02
      8.388  0.5771E+01  0.3824E+02
      8.409  0.5949E+01  0.3836E+02
      8.430  0.5909E+01  0.3848E+02
      8.450  0.6051E+01  0.3860E+02
      8.471  0.5961E+01  0.3873E+02
      8.492  0.6041E+01  0.3886E+02
      8.512  0.6340E+01  0.3901E+02
      8.533  0.5938E+01  0.3915E+02
      8.554  0.5770E+01  0.3927E+02
      8.574  0.5625E+01  0.3939E+02
      8.595  0.5574E+01  0.3950E+02
      8.616  0.5352E+01  0.3961E+02
      8.636  0.5222E+01  0.3972E+02
      8.657  0.5211E+01  0.3983E+02
      8.678  0.5258E+01  0.3994E+02
      8.698  0.5437E+01  0.4006E+02
      8.719  0.5339E+01  0.4017E+02
      8.740  0.5199E+01  0.4028E+02
      8.760  0.4870E+01  0.4038E+02
      8.781  0.3845E+01  0.4047E+02
      8.802  0.3630E+01  0.4055E+02
      8.822  0.3453E+01  0.4062E+02
      8.843  0.3293E+01  0.4069E+02
      8.864  0.3292E+01  0.4076E+02
      8.884  0.3290E+01  0.4083E+02
      8.905  0.3067E+01  0.4089E+02
      8.926  0.3113E+01  0.4096E+02
      8.946  0.3157E+01  0.4102E+02